[Molden Format]

[FREQ]
        -441.9498399307
         231.9757632965
         231.9757961890
         269.2220888105
        1060.3418790983
        1060.3422266076
        1303.5986315274
        1551.1381135452
        1551.1382007618
        3414.6785023854
        3611.0320184285
        3611.0324897140

[FR-COORD]
F          0.0000006584       -0.0000002990       -4.9461361185
C          0.0000006584       -0.0000002990       -0.9272400051
H          0.0000006584       -1.9907624713       -1.1790219904
H          1.7240514872        0.9953806966       -1.1790218707
H         -1.7240499939        0.9953809550       -1.1790221117
CL        -0.0000006456        0.0000002887        3.1073456357

[FR-NORM-COORD]
vibration 1
          -0.0000000021       -0.0000000287       -0.2758969904
          -0.0000001685        0.0000001223        0.9167388760
          -0.0000000579        0.0828648323        0.1043892953
          -0.0717629803       -0.0414322074        0.1043898065
           0.0717628727       -0.0414322272        0.1043890936
           0.0000000637       -0.0000000379       -0.1737226857
vibration 2
          -0.0903137724       -0.1665442831        0.0000000480
           0.2190271863        0.4038999208       -0.0000000265
           0.2325381063        0.4294980022       -0.1213613948
           0.2331116765        0.4291461432        0.1176754792
           0.2325213920        0.4288274592        0.0036858876
          -0.0462166482       -0.0852264086       -0.0000000162
vibration 3
          -0.1665442854        0.0903137740       -0.0000001327
           0.4038999299       -0.2190271899        0.0000000907
           0.4288164555       -0.2329085419        0.0658120491
           0.4291675075       -0.2323360967        0.0721961389
           0.4294876405       -0.2329265334       -0.1380078838
          -0.0852264104        0.0462166485        0.0000000322
vibration 4
          -0.0000002192        0.0000001571        0.8500271600
           0.0000001474       -0.0000002092        0.1234284683
           0.0000002120        0.0147300174        0.0371173309
          -0.0127565701       -0.0073653735        0.0371173160
           0.0127569625       -0.0073653579        0.0371169449
           0.0000000511        0.0000000070       -0.5073807650
vibration 5
           0.0021834515        0.0070269727       -0.0000000193
           0.0136571033        0.0439524888       -0.0000000017
          -0.0271264387       -0.0482902635        0.7723863803
          -0.0011433649       -0.0722990596       -0.5940380119
          -0.0349270663       -0.0827963135       -0.1783474864
          -0.0040514897       -0.0130388605       -0.0000000143
vibration 6
           0.0070269762       -0.0021834511        0.0000000104
           0.0439524927       -0.0136571059        0.0000000617
          -0.0873002880        0.0150049761       -0.2399993030
          -0.0632914138        0.0409877719       -0.5489067089
          -0.0527940669        0.0072041206        0.7889052199
          -0.0130388599        0.0040514903       -0.0000000040
vibration 7
           0.0000000017       -0.0000000062       -0.0249321724
           0.0000000042       -0.0000000203       -0.0392290918
          -0.0000000571       -0.0664789223        0.5727339506
           0.0575723847        0.0332395400        0.5727345168
          -0.0575725273        0.0332395684        0.5727349300
           0.0000000034        0.0000000050       -0.0225122579
vibration 8
           0.0008094582        0.0001249882       -0.0000000005
          -0.0877699493       -0.0135524959       -0.0000000028
           0.7886324261       -0.0146701171        0.0189352858
           0.0668209668       -0.2949658337       -0.1156686664
           0.1849834689        0.4702890377        0.0967333976
          -0.0003064823       -0.0000473229        0.0000000007
vibration 9
          -0.0001249873        0.0008094575        0.0000000005
           0.0135524876       -0.0877699533        0.0000000023
          -0.1217721917       -0.0950078397        0.1226302897
          -0.4020678876        0.6268036173       -0.0449167511
           0.3631870262        0.5086410955       -0.0777135684
           0.0000473243       -0.0003064809       -0.0000000002
vibration 10
           0.0000000003       -0.0000000012       -0.0005483978
          -0.0000000109        0.0000001608       -0.0150792295
           0.0000000164        0.5739008499        0.0624001902
          -0.4970143073       -0.2869512864        0.0624003686
           0.4970144145       -0.2869514333        0.0624004741
           0.0000000000       -0.0000000007        0.0000773131
vibration 11
           0.0005705998       -0.0000027746       -0.0000000001
          -0.1026444222        0.0004990841       -0.0000000070
          -0.0084462581       -0.0039211756       -0.0004664224
           0.6010065436        0.3519087394       -0.0828418419
           0.6044376660       -0.3538076788        0.0833083434
           0.0004154578       -0.0000020200        0.0000000002
vibration 12
           0.0000027742        0.0005705994       -0.0000000009
          -0.0004990811       -0.1026444222       -0.0000000262
          -0.0000410580        0.8064458859        0.0959269599
           0.3557879190        0.1969916770       -0.0483672161
          -0.3499267751        0.1935603963       -0.0475594199
           0.0000020201        0.0004154578        0.0000000001
